ITEM: TIMESTEP
80000
ITEM: NUMBER OF ATOMS
537
ITEM: BOX BOUNDS xy xz yz pp pp pp
-403.145 436.145 0
-403.145 436.145 0
-403.145 436.145 0
ITEM: ATOMS id type x y z c_cna 
188 1 -31.9166 -45.194 -34.9059 5 
359 1 11.9611 6.39227 35.1766 5 
394 1 -102.804 15.9759 78.7718 5 
263 1 -22.5322 -5.12641 31.9025 5 
182 1 -22.5197 32.1467 -37.4038 5 
205 1 -73.8824 37.3106 8.77831 5 
52 1 3.05519 42.2917 12.0869 5 
172 1 -35.1445 74.654 -7.79942 5 
200 1 -6.03934 45.1119 11.2623 5 
131 1 -6.1007 27.1861 -18.4865 5 
223 1 -6.04915 36.0083 40.9677 5 
23 1 2.16543 43.2423 32.3698 5 
110 1 4.14254 37.6148 35.7388 5 
329 1 2.17773 29.1232 30.0186 5 
171 1 -6.02893 37.0889 36.9739 5 
445 1 -4.51475 35.0175 33.592 5 
488 1 -2.61843 33.4574 39.9722 5 
121 1 6.34405 41.5969 37.1725 5 
447 1 -3.09082 32.4738 42.3187 5 
45 1 -1.28673 32.4446 28.7882 5 
339 1 -10.7984 40.5019 29.9053 5 
118 1 0.273617 28.2992 35.5162 5 
94 1 -3.47871 41.2537 26.755 5 
455 1 6.2946 36.92 26.173 5 
352 1 4.73484 33.5326 34.2563 5 
366 1 -3.62367 38.7424 26.0117 5 
460 1 4.73269 36.221 40.936 5 
494 1 -5.0056 33.1963 23.9225 5 
25 1 8.86244 33.1747 36.9149 5 
365 1 -4.77806 29.9401 34.7048 5 
163 1 5.1502 30.9259 35.2176 5 
395 1 -3.8119 43.4573 27.046 5 
158 1 0.43645 39.5117 31.1659 5 
368 1 -8.73757 37.1927 25.2542 5 
80 1 -6.4783 41.0341 28.6106 5 
495 1 -3.80417 37.3942 37.3784 5 
227 1 1.0581 34.4894 31.0811 5 
244 1 -4.35074 39.8509 37.2417 5 
277 1 -5.86712 40.8348 35.6407 5 
532 1 -7.18279 38.8745 28.4783 5 
382 1 -6.20474 37.7115 30.4579 5 
469 1 7.18812 30.1561 29.933 5 
32 1 0.172159 27.0965 31.6057 5 
518 1 7.88444 38.4432 30.7061 5 
415 1 2.20479 44.4052 37.4188 5 
36 1 -8.49353 43.1357 36.2056 5 
269 1 -1.39714 32.9846 30.9547 5 
26 1 3.11462 28.4688 35.8687 5 
476 1 -1.34005 30.3142 26.8044 5 
286 1 -1.97353 37.5728 31.7652 5 
306 1 3.11513 30.6509 25.8739 5 
251 1 2.04914 39.3146 40.371 5 
371 1 5.13667 34.8219 36.2244 5 
198 1 1.80478 40.2563 37.9036 5 
143 1 5.60884 42.8661 32.8198 5 
21 1 -5.79492 30.2213 26.1906 5 
7 1 -6.99337 39.1404 34.6874 5 
405 1 5.70555 31.6569 26.5204 5 
282 1 -4.098 39.6177 28.7561 5 
85 1 3.2948 28.6959 31.8594 5 
346 1 -2.97658 28.9603 34.3505 5 
434 1 -10.8005 33.6836 29.5199 5 
314 1 -3.74379 27.5988 30.782 5 
29 1 10.6042 33.6272 51.0331 5 
70 1 7.52679 34.4008 34.7951 5 
231 1 8.26987 35.7785 31.0038 5 
288 1 -6.5687 31.2585 24.5446 5 
91 1 -5.47094 35.7697 38.6717 5 
375 1 -6.02241 45.3551 33.7815 5 
372 1 -3.92253 33.1767 34.8584 5 
246 1 -1.70431 40.7806 22.2641 5 
221 1 -10.0355 43.6442 33.7914 5 
536 1 -1.55115 41.4771 28.1642 5 
195 1 5.65898 29.8486 28.1649 5 
307 1 5.95923 39.4739 32.2488 5 
370 1 7.18339 29.6191 36.3557 5 
417 1 0.993862 45.8873 31.492 5 
233 1 3.2825 42.2243 38.0939 5 
364 1 8.99057 37.2896 32.7415 5 
145 1 -3.15565 36.785 34.2259 5 
353 1 5.74991 38.7084 29.2303 5 
527 1 -6.25325 42.7463 36.4824 5 
134 1 -2.17972 33.7783 23.4885 5 
436 1 2.95216 30.9136 36.1259 5 
17 1 -3.76968 37.0035 39.7577 5 
167 1 -2.58156 45.9232 36.9279 5 
322 1 -8.46436 34.8843 28.8919 5 
220 1 3.28219 31.9301 42.6975 5 
127 1 5.21741 34.968 32.2627 5 
174 1 -3.32401 38.6792 41.8876 5 
170 1 -2.54272 37.2026 24.527 5 
242 1 -6.02762 36.2508 34.4607 5 
47 1 -1.46478 37.2029 42.8224 5 
78 1 3.55789 33.0279 30.7196 5 
98 1 1.83485 40.7276 32.7425 5 
241 1 5.12663 27.0596 32.4446 5 
284 1 5.36581 34.1119 25.1894 5 
204 1 2.70322 33.8891 32.6754 5 
43 1 4.45722 29.4209 37.3822 5 
492 1 0.69639 44.0799 35.4295 5 
373 1 1.13055 33.8564 28.9137 5 
281 1 0.068152 39.8759 42.2543 5 
92 1 1.49506 27.4921 33.7875 5 
120 1 2.03565 38.1583 36.9713 5 
201 1 3.45918 38.5697 27.8571 5 
326 1 -5.445 31.6498 30.6892 5 
155 1 -5.54371 32.6777 26.5579 5 
328 1 -2.01245 33.8688 33.3817 5 
197 1 1.36369 27.67 26.5754 5 
33 1 -4.94045 32.0309 39.4309 5 
245 1 1.22532 35.876 38.3697 5 
124 1 6.54644 36.1811 29.3319 5 
119 1 1.18342 46.1651 29.042 5 
240 1 -7.60989 40.5555 32.8037 5 
501 1 -1.29164 26.2523 27.527 5 
254 1 -9.74958 41.4944 32.684 5 
356 1 -0.911878 42.4784 36.3164 5 
463 1 7.8449 37.957 28.1212 5 
327 1 0.875768 33.7964 37.3519 5 
300 1 -8.71096 37.8862 29.7269 5 
192 1 1.8768 38.2499 23.0786 5 
450 1 -2.86524 32.2742 26.2429 5 
285 1 -8.27567 44.9598 34.2451 5 
425 1 5.37241 39.3133 26.7581 5 
471 1 -5.77201 39.736 31.1549 5 
484 1 1.40118 34.155 40.0564 5 
248 1 -10.3756 35.6086 36.3343 5 
483 1 3.66669 33.4249 36.6107 5 
498 1 0.299958 36.8164 31.4597 5 
316 1 -2.4729 36.7705 29.1712 5 
99 1 1.33891 32.4204 23.9275 5 
166 1 -8.1013 41.168 34.7354 5 
8 1 -29.5043 48.6611 23.4082 5 
243 1 -1.64624 44.1255 38.5409 5 
37 1 -9.79073 42.2524 30.6857 5 
232 1 -3.83353 42.0088 29.0633 5 
15 1 -5.31355 41.7236 30.648 5 
332 1 -1.5042 40.8684 34.2269 5 
196 1 -12.148 40.0638 34.5264 5 
479 1 -1.13455 35.3079 24.8764 5 
39 1 3.65215 41.6909 31.7735 5 
152 1 -5.94007 61.3513 27.1357 5 
480 1 2.33407 29.7504 34.0596 5 
114 1 -3.84884 31.3063 24.3386 5 
144 1 0.0122391 31.5248 36.9998 5 
138 1 -3.26552 27.5497 28.2763 5 
230 1 0.824475 41.6578 24.7438 5 
247 1 -3.27361 27.1995 32.9811 5 
215 1 -4.79281 37.6008 28.1426 5 
335 1 -1.36854 45.0052 35.2379 5 
393 1 -6.90631 34.3348 23.0246 5 
224 1 -25.9866 39.7853 25.4386 5 
148 1 -3.51491 34.4943 27.8622 5 
151 1 -5.48038 31.9754 33.5215 5 
462 1 -12.5483 41.5789 31.1534 5 
18 1 5.32972 38.3936 39.0115 5 
478 1 -3.27508 39.8637 39.3256 5 
255 1 -3.75202 32.9064 32.1363 5 
229 1 -2.01211 42.0478 30.7039 5 
228 1 -0.433848 26.1399 33.8006 5 
528 1 6.4076 36.0949 39.986 5 
485 1 1.41207 32.1022 27.081 5 
293 1 5.4507 28.1904 36.1102 5 
412 1 -5.68444 39.9505 26.8655 5 
252 1 -5.13588 42.4271 38.68 5 
391 1 -4.02271 35.6981 23.5073 5 
312 1 -3.13031 42.0933 32.8894 5 
390 1 -1.32019 42.3613 23.9135 5 
403 1 1.94434 41.5834 40.0944 5 
38 1 -7.38982 35.8657 30.463 5 
199 1 2.75455 35.4605 41.9631 5 
525 1 1.77855 80.0745 23.3701 5 
280 1 6.04676 27.8952 38.4842 5 
267 1 -1.56136 39.7997 32.0707 5 
169 1 2.94479 40.3901 27.1566 5 
350 1 -9.42522 33.7208 36.8876 5 
361 1 -4.74871 44.9809 35.7855 5 
523 1 -0.0983674 25.7606 36.5753 5 
407 1 -0.0655228 39.7038 24.0606 5 
301 1 3.85873 39.3141 37.5237 5 
16 1 3.84237 38.3638 24.5929 5 
126 1 -1.50207 29.787 39.8354 5 
58 1 -2.56919 34.7062 30.0462 5 
156 1 -3.45883 35.8557 31.5961 5 
418 1 -10.7402 38.7677 28.3972 5 
66 1 -0.664163 42.5802 40.5327 5 
90 1 -0.404081 28.4386 38.0377 5 
426 1 4.07553 34.5355 38.7157 5 
179 1 -6.8758 36.6554 28.2958 5 
216 1 0.954559 29.6872 26.0157 5 
20 1 6.11233 34.3926 27.3172 5 
438 1 -5.3787 38.2798 41.2587 5 
310 1 5.2457 31.2885 40.5578 5 
481 1 3.64441 32.6428 27.1373 5 
430 1 -1.57696 25.745 31.8651 5 
421 1 -3.31678 46.1321 31.3582 5 
101 1 4.32573 40.3699 39.7667 5 
377 1 0.583592 28.193 28.6091 5 
431 1 -3.66701 38.1431 30.6034 5 
449 1 4.36908 39.9149 33.4842 5 
427 1 -6.16602 30.668 37.4504 5 
323 1 -6.99679 29.8426 35.2867 5 
530 1 -38.645 66.5115 45.0226 5 
74 1 6.93097 28.6257 31.5685 5 
27 1 -6.58816 37.8211 26.0598 5 
318 1 0.231834 30.6365 28.6006 5 
401 1 7.79971 36.4897 37.4827 5 
406 1 -1.98388 39.7598 36.9571 5 
141 1 -1.07426 35.1195 31.8161 5 
113 1 -1.75007 38.6358 35.0215 5 
102 1 -4.53786 35.4165 36.1655 5 
218 1 -5.51067 41.3816 33.2117 5 
402 1 5.41186 43.3726 35.8038 5 
212 1 -6.88255 41.933 23.6806 5 
190 1 6.26961 31.8575 31.0709 5 
358 1 -1.3395 31.4987 32.9659 5 
424 1 -4.50111 38.1048 35.4382 5 
458 1 -10.3375 35.0354 34.1663 5 
81 1 -0.507161 37.0291 27.2348 5 
385 1 -5.40744 43.5192 32.1478 5 
451 1 -2.29339 39.1242 27.7072 5 
305 1 -3.82159 26.0476 37.7785 5 
459 1 3.43497 33.0182 40.6534 5 
308 1 3.34697 31.7637 34.1829 5 
11 1 -6.65735 29.8687 33.0061 5 
452 1 3.78616 32.6037 24.7503 5 
185 1 -1.10415 35.26 38.7759 5 
453 1 -1.56344 31.6318 24.1995 5 
271 1 -9.65852 30.0793 28.9495 5 
376 1 -2.24501 44.3265 32.8213 5 
86 1 -3.3194 38.1267 22.4957 5 
319 1 -5.78197 29.9484 29.0085 5 
268 1 -3.2693 28.983 25.1922 5 
321 1 -5.5485 36.7497 32.0042 5 
189 1 -1.04792 38.7688 25.7911 5 
168 1 3.82233 42.5483 34.1455 5 
354 1 -1.71482 39.8035 29.6737 5 
103 1 4.01484 26.8124 34.3809 5 
65 1 -1.85601 33.2562 37.3459 5 
116 1 2.75093 31.0526 31.7861 5 
253 1 7.388 29.9074 33.8781 5 
428 1 -1.51174 27.7546 30.2138 5 
236 1 -7.92628 28.1056 33.5738 5 
489 1 8.87086 31.9882 34.9307 5 
441 1 -5.89138 34.5724 27.957 5 
128 1 0.706433 42.7001 37.8909 5 
31 1 3.29813 34.2845 23.1687 5 
303 1 -9.90773 39.1265 31.9041 5 
165 1 -1.85578 41.8285 38.3538 5 
397 1 0.4829 34.3724 23.8493 5 
369 1 2.26807 32.4334 38.1372 5 
466 1 -4.11389 28.5367 36.8739 5 
2 1 -1.72162 29.758 36.5124 5 
193 1 -4.04116 31.2656 36.6838 5 
213 1 -0.378557 33.3698 39.3478 5 
520 1 4.68192 40.8347 35.8702 5 
258 1 0.769155 25.8389 27.9823 5 
64 1 -7.58147 39.0064 36.8536 5 
162 1 -9.40088 36.256 31.6053 5 
57 1 5.17976 29.2888 25.3073 5 
73 1 -3.85607 32.0472 28.475 5 
194 1 -7.62049 32.3172 32.2603 5 
297 1 -1.97974 28.9437 32.0348 5 
234 1 0.843922 33.1948 42.0117 5 
355 1 -4.6429 36.0897 26.3497 5 
298 1 -14.7364 20.181 26.3447 5 
357 1 -2.18207 35.0621 35.4456 5 
225 1 -1.94004 35.9562 21.8412 5 
46 1 -7.31169 34.0801 39.7055 5 
313 1 2.73383 34.2871 25.5707 5 
79 1 9.1455 34.9679 33.1456 5 
186 1 -8.98315 41.0891 28.4887 5 
490 1 2.67336 25.5456 32.8379 5 
291 1 0.304527 44.0282 27.8782 5 
474 1 -4.28842 25.4141 31.52 5 
535 1 6.13444 52.8769 18.5933 5 
386 1 -6.68267 25.448 30.9744 5 
500 1 -3.61253 40.7657 31.2708 5 
157 1 -1.88785 27.193 35.5836 5 
381 1 -8.96753 30.5817 33.5792 5 
299 1 -1.35511 47.5391 30.6848 5 
283 1 -2.13053 31.8997 34.9672 5 
465 1 2.61541 40.3558 23.883 5 
9 1 3.21607 45.2481 31.0158 5 
510 1 -6.07075 34.748 25.4294 5 
83 1 2.51532 26.6123 30.9177 5 
19 1 -7.94901 27.942 28.7845 5 
294 1 -12.4582 42.463 33.1686 5 
464 1 -7.24857 39.1999 24.5944 5 
191 1 1.96614 37.0336 40.4619 5 
48 1 -9.20341 35.2558 24.7561 5 
491 1 8.24113 40.0785 35.5773 5 
209 1 10.3544 45.5425 97.8827 5 
444 1 -4.98735 33.4114 41.8859 5 
429 1 -0.0592712 37.1855 24.5348 5 
69 1 -5.06209 40.5969 24.7278 5 
3 1 -8.57516 31.2805 36.4064 5 
336 1 5.44176 34.1689 30.1649 5 
150 1 -0.994276 38.3152 40.5583 5 
487 1 2.95858 37.4615 30.088 5 
178 1 -5.9827 27.4268 32.5306 5 
272 1 2.6403 31.5521 29.0118 5 
214 1 -4.43951 40.5112 41.2562 5 
202 1 -1.30605 43.6405 26.306 5 
142 1 6.54233 32.23 34.2555 5 
88 1 4.9792 42.2416 27.5771 5 
331 1 1.86433 25.9868 35.4084 5 
259 1 0.91547 43.8153 30.1836 5 
275 1 -8.54783 34.6274 34.9921 5 
106 1 -12.0979 38.5594 30.3683 5 
439 1 -8.10977 40.0507 30.5603 5 
22 1 -7.72002 35.9796 33.27 5 
260 1 6.25635 30.3976 38.7436 5 
522 1 -8.23588 43.1446 29.5683 5 
347 1 -11.0695 38.1428 35.5179 5 
330 1 -0.87956 38.2439 22.4606 5 
10 1 -10.3849 36.2569 29.192 5 
265 1 -7.69696 41.6986 38.0685 5 
105 1 1.21174 42.0239 27.3656 5 
505 1 1.35197 33.325 21.7928 5 
278 1 -3.3374 30.6326 32.8028 5 
60 1 -3.51999 34.1317 25.4873 5 
123 1 1.85456 30.9355 41.3081 5 
432 1 -5.16865 29.1327 31.6619 5 
378 1 -10.9512 42.1554 47.7156 5 
50 1 -9.56851 36.5498 27.2093 5 
183 1 8.30767 34.4274 28.6233 5 
413 1 0.0910229 45.5575 37.7212 5 
379 1 4.89431 28.2433 29.8877 5 
76 1 2.68005 35.4278 36.9328 5 
526 1 7.28358 33.6883 32.7032 5 
130 1 1.70866 27.3151 37.6607 5 
400 1 -7.80169 29.6576 27.4132 5 
338 1 -4.74597 42.8111 34.4253 5 
404 1 -4.34274 34.7077 40.2695 5 
287 1 4.18008 36.3249 26.434 5 
388 1 2.61783 42.0673 36.0767 5 
325 1 3.79256 38.311 41.2533 5 
486 1 6.72559 37.0846 32.4383 5 
136 1 0.543176 35.7771 22.0383 5 
75 1 4.63125 30.3045 30.5358 5 
117 1 -0.419492 33.2043 35.3131 5 
40 1 -9.59009 34.2007 31.4812 5 
6 1 6.18496 32.29 36.7593 5 
222 1 0.869476 29.5544 31.9014 5 
51 1 -3.39006 45.284 28.8674 5 
266 1 -6.99686 34.887 37.1932 5 
408 1 1.85891 37.0844 26.207 5 
97 1 0.8008 32.29 33.1925 5 
422 1 -2.94319 39.8895 24.3813 5 
392 1 5.32803 32.0021 28.8226 5 
411 1 -9.00113 35.4429 38.764 5 
311 1 7.49307 32.2507 38.7437 5 
84 1 1.57903 37.6255 34.513 5 
363 1 -8.03772 44.1486 31.9969 5 
210 1 0.812037 28.2707 39.8942 5 
264 1 -7.67414 35.4339 26.6763 5 
446 1 -0.943579 36.8179 34.0201 5 
42 1 -5.35065 27.4432 34.6826 5 
529 1 -5.02167 38.055 24.3287 5 
289 1 -5.63628 38.6335 38.5926 5 
507 1 -6.28034 33.8276 34.7956 5 
416 1 1.74013 29.8939 37.9543 5 
273 1 -3.33042 39.3739 33.6137 5 
41 1 -4.88377 33.5334 29.9897 5 
161 1 6.8776 34.354 37.899 5 
95 1 -3.70442 42.4789 24.6136 5 
53 1 -6.79534 43.155 34.2049 5 
173 1 -7.62699 33.3615 25.1102 5 
256 1 6.0178 43.3637 30.3227 5 
482 1 -3.7115 25.8472 34.393 5 
504 1 -8.09527 32.1309 26.8077 5 
389 1 8.04937 39.5749 33.2688 5 
72 1 -5.92953 43.7376 28.4858 5 
34 1 -0.136245 37.9364 29.4878 5 
235 1 3.05871 41.9871 25.8161 5 
55 1 -0.222276 43.6244 33.1845 5 
309 1 4.83522 37.1804 30.8942 5 
71 1 4.49285 36.1777 28.6352 5 
440 1 -3.23093 30.6586 41.0492 5 
499 1 -7.42098 37.3164 39.2925 5 
175 1 3.99391 37.6196 33.413 5 
511 1 -4.3352 44.7932 38.3615 5 
68 1 -29.1329 72.7975 27.1864 5 
448 1 -16.0731 32.2004 48.3941 5 
107 1 -3.13345 42.5335 40.5177 5 
208 1 0.156483 46.0624 33.5197 5 
160 1 -1.48987 34.3395 41.9114 5 
276 1 -6.1989 34.3803 31.9455 5 
345 1 -7.90653 30.4206 30.8749 5 
342 1 3.12681 34.5395 28.0301 5 
435 1 14.2685 102.618 92.8435 5 
112 1 -7.55096 41.0525 26.3696 5 
477 1 -7.91297 28.3339 31.1116 5 
257 1 -4.41768 33.3067 37.1443 5 
317 1 -0.546807 40.0138 38.8402 5 
207 1 -8.01331 37.2049 35.3539 5 
414 1 -4.02053 30.0124 27.5053 5 
337 1 0.757198 38.1132 38.8688 5 
468 1 -9.28533 38.9226 34.1955 5 
125 1 -10.2499 41.2877 34.6334 5 
187 1 1.00842 41.6953 34.331 5 
104 1 -1.95951 47.322 32.9287 5 
442 1 -9.57743 39.9107 36.5457 5 
147 1 8.22212 37.7942 35.0957 5 
219 1 7.58688 31.872 28.538 5 
399 1 -1.15876 28.1677 26.274 5 
132 1 -3.95236 25.545 29.3205 5 
384 1 -18.7251 43.9044 28.4801 5 
343 1 4.76385 36.333 24.1647 5 
59 1 -8.94167 39.0247 26.8925 5 
30 1 -6.53948 32.0305 35.774 5 
521 1 3.70484 26.3583 37.0542 5 
512 1 -0.74716 30.8007 30.7477 5 
135 1 5.84543 33.6546 39.9149 5 
443 1 5.75923 40.9943 30.7926 5 
154 1 -0.964484 45.4525 31.2096 5 
226 1 0.00505848 30.7362 34.709 5 
249 1 -5.78425 42.765 25.6793 5 
433 1 5.96099 36.2446 34.2679 5 
250 1 -5.20464 44.959 30.3666 5 
503 1 -10.5672 37.2067 33.6813 5 
506 1 8.34092 31.6263 31.7426 5 
111 1 -2.14173 42.793 34.879 5 
28 1 0.0966253 40.5227 36.219 5 
502 1 -11.6742 36.4313 31.9414 5 
211 1 -3.1709 30.8601 30.7382 5 
181 1 -3.95571 29.615 39.1438 5 
61 1 -6.62428 36.4245 23.6891 5 
362 1 -0.106636 42.054 32.1413 5 
217 1 -3.87736 63.9699 78.089 5 
44 1 -2.04337 37.9204 38.3754 5 
77 1 -9.18391 37.3996 37.3612 5 
238 1 -29.6812 39.4595 44.631 5 
341 1 -3.35444 42.8066 37.0968 5 
261 1 2.42957 44.9024 33.7849 5 
508 1 4.50571 31.9169 38.1403 5 
304 1 3.01458 29.3349 27.7475 5 
497 1 -7.38733 33.3355 30.3185 5 
496 1 1.12718 43.7161 25.845 5 
515 1 2.22641 38.3956 32.3329 5 
524 1 -1.18078 41.4334 25.8401 5 
531 1 -11.795 39.4261 32.7573 5 
279 1 -5.92332 28.2275 27.4055 5 
380 1 1.7061 36.2728 28.5985 5 
133 1 -8.40565 39.547 39.1772 5 
177 1 -0.831006 25.4794 29.7422 5 
454 1 -0.668868 28.8559 33.7474 5 
315 1 4.89407 29.2898 33.5282 5 
237 1 -3.4937 43.8769 30.7304 5 
473 1 -7.52625 38.2618 32.4364 5 
206 1 1.40929 39.378 25.7778 5 
456 1 3.00333 27.7875 39.3977 5 
537 1 -6.74002 45.4063 36.5469 5 
164 1 1.14994 44.4581 39.6394 5 
296 1 -3.41901 45.9687 34.0652 5 
108 1 0.451476 39.4762 27.5637 5 
333 1 3.85164 36.9255 38.757 5 
348 1 3.58257 39.5065 31.3001 5 
396 1 -6.59449 32.2575 28.567 5 
82 1 3.98961 43.0839 30.1966 5 
534 1 3.73 35.7622 34.8358 5 
93 1 -0.138793 38.1963 36.6105 5 
96 1 1.5356 38.3106 42.5118 5 
383 1 -2.37699 31.26 38.4335 5 
423 1 -9.13724 32.2459 29.2375 5 
340 1 4.28671 40.642 29.2446 5 
420 1 -3.16421 35.5898 42.2364 5 
472 1 -1.20643 43.4595 29.3089 5 
344 1 0.672777 34.7995 33.6017 5 
295 1 1.94566 36.4685 24.2137 5 
184 1 -24.6199 32.3223 24.4002 5 
180 1 -7.17362 43.7887 38.7172 5 
122 1 2.64461 44.0709 28.3119 5 
115 1 4.36519 45.0011 32.8193 5 
410 1 -0.497453 35.3541 28.9908 5 
203 1 -1.92782 36.1666 40.414 5 
409 1 0.184408 38.9624 33.781 5 
274 1 3.44994 35.4236 30.7823 5 
24 1 6.24276 39.2672 36.7451 5 
302 1 -4.97845 35.83 29.7117 5 
89 1 -5.82794 39.1277 22.6686 5 
109 1 -50.5701 26.0455 48.4521 5 
533 1 -7.37842 42.0723 31.47 5 
320 1 -1.42737 45.5396 28.2065 5 
35 1 2.62155 26.8011 28.9803 5 
14 1 -1.31969 36.2667 37.0404 5 
5 1 0.317918 41.3523 29.8302 5 
159 1 6.4944 41.2606 34.2637 5 
12 1 -4.05265 40.3172 22.3675 5 
146 1 1.9168 39.3754 29.2175 5 
1 1 3.39088 36.393 22.2299 5 
324 1 8.73773 33.5616 30.46 5 
239 1 -2.62671 36.509 26.882 5 
49 1 9.13164 35.6965 35.8768 5 
437 1 0.460024 30.9499 39.1381 5 
509 1 6.61604 40.8276 28.677 5 
140 1 -5.36075 38.6181 33.237 5 
519 1 0.209764 35.756 42.1379 5 
100 1 5.5916 36.7452 37.4238 5 
349 1 -9.15376 32.7243 34.0684 5 
262 1 -3.64292 40.6539 35.238 5 
13 1 2.75378 39.5545 35.171 5 
63 1 0.973226 32.0722 30.5714 5 
334 1 -0.562108 33.027 26.0851 5 
493 1 -3.2589 34.9818 38.0511 5 
470 1 -5.95083 27.3192 29.5142 5 
457 1 -15.3945 46.6267 19.1962 5 
290 1 -7.0388 32.9105 37.9545 5 
270 1 -1.03147 32.2035 41.0041 5 
467 1 -2.03548 40.4907 41.0583 5 
149 1 0.788934 35.698 35.5878 5 
516 1 3.39334 30.6166 39.6404 5 
176 1 -2.29211 29.5616 28.8872 5 
292 1 3.84462 45.0321 35.2768 5 
367 1 -9.94009 31.5259 31.5854 5 
419 1 0.858014 35.1971 26.6047 5 
139 1 -35.9558 60.2616 51.2586 5 
129 1 2.36354 41.7568 29.5526 5 
398 1 4.89794 32.2036 32.553 5 
62 1 1.8313 32.893 35.2414 5 
87 1 5.96108 38.7229 34.4339 5 
517 1 -9.51783 33.8227 26.8476 5 
351 1 -1.44051 34.2334 27.4333 5 
475 1 2.48947 36.1413 32.9297 5 
54 1 -5.97952 40.3488 39.8377 5 
360 1 26.4469 2.01291 11.413 5 
4 1 53.6853 11.4256 18.7596 5 
56 1 27.6089 2.86112 56.1639 5 
513 1 83.4419 58.0634 -0.0414223 5 
387 1 18.0355 33.5816 11.4618 5 
137 1 51.9324 383.454 -125.696 5 
514 1 72.08 23.3982 55.7147 5 
67 1 31.5064 37.3317 21.2735 5 
461 1 21.7733 18.0719 55.361 5 
153 1 17.9294 25.4167 59.1794 5 
374 1 425.592 51.6254 76.4888 5 
ITEM: TIMESTEP
82000
ITEM: NUMBER OF ATOMS
537
ITEM: BOX BOUNDS xy xz yz pp pp pp
-403.145 436.145 0
-403.145 436.145 0
-403.145 436.145 0
ITEM: ATOMS id type x y z c_cna 
188 1 -31.9166 -45.194 -34.9059 5 
359 1 11.9611 6.39227 35.1766 5 
394 1 -102.804 15.9759 78.7718 5 
263 1 -22.5322 -5.12641 31.9025 5 
182 1 -22.5197 32.1467 -37.4038 5 
205 1 -73.8824 37.3106 8.77831 5 
52 1 3.05519 42.2917 12.0869 5 
172 1 -35.1445 74.654 -7.79943 5 
200 1 -6.03934 45.1119 11.2623 5 
131 1 -6.1007 27.1861 -18.4865 5 
223 1 -7.78706 32.5006 38.2924 5 
23 1 3.16322 44.211 32.7138 5 
110 1 4.94809 38.0394 36.1032 5 
329 1 0.973815 28.3688 30.6374 5 
171 1 -3.27862 39.6006 34.2326 5 
445 1 -3.39985 35.2649 35.9734 5 
488 1 1.04678 32.5619 38.3231 5 
121 1 8.06057 30.3013 31.4154 5 
447 1 -4.26373 34.0923 41.9497 5 
45 1 -4.20236 32.7655 32.2108 5 
339 1 -8.71247 36.9385 23.2489 5 
118 1 2.98996 29.6382 34.9802 5 
94 1 -3.72423 40.2716 25.951 5 
455 1 4.06259 39.0074 30.1427 5 
352 1 2.91257 33.2745 37.0458 5 
366 1 -4.50724 33.2326 26.3076 5 
460 1 8.36663 33.2328 36.9941 5 
494 1 -3.41229 38.7535 23.1483 5 
25 1 9.11556 32.4133 32.3175 5 
365 1 -7.33193 30.2452 33.8096 5 
163 1 1.33911 31.1245 36.5287 5 
395 1 -6.79527 41.391 25.6064 5 
158 1 0.480958 37.4566 34.3747 5 
368 1 -7.62178 39.4005 24.5387 5 
80 1 -7.92482 39.7921 27.2603 5 
495 1 -0.901351 42.7179 37.6619 5 
227 1 -2.47983 34.0449 27.8779 5 
244 1 -1.59693 42.7457 40.256 5 
277 1 -6.32849 43.1971 38.7771 5 
532 1 -8.19688 41.3053 29.7334 5 
382 1 -5.23741 39.2771 28.063 5 
469 1 5.47891 29.0372 29.3651 5 
32 1 2.94209 29.6126 31.1896 5 
518 1 7.36548 38.5078 27.4641 5 
415 1 8.04562 39.8581 33.8219 5 
36 1 -7.51731 43.6589 31.5766 5 
269 1 -3.95849 28.4555 31.3795 5 
26 1 2.17472 26.2826 37.3582 5 
476 1 1.00748 28.116 27.8916 5 
286 1 -2.45838 37.9163 31.1939 5 
306 1 4.90907 33.6288 26.7254 5 
251 1 6.60764 37.4069 37.6079 5 
371 1 4.80526 35.2564 32.7795 5 
198 1 3.21344 40.5512 39.6225 5 
143 1 4.70797 42.5848 32.4504 5 
21 1 0.0146951 29.8382 25.9975 5 
7 1 -1.93907 43.6732 34.3448 5 
405 1 0.466386 40.175 24.2923 5 
282 1 -3.95986 41.9213 27.973 5 
85 1 1.89398 27.6557 35.0413 5 
346 1 -3.82563 28.7733 35.5788 5 
434 1 -8.36961 29.0429 29.1576 5 
314 1 -1.76028 27.4562 27.7588 5 
29 1 10.6042 33.6272 51.0331 5 
70 1 6.10111 32.3038 36.1727 5 
231 1 6.79863 34.3881 32.3264 5 
288 1 -1.21626 33.6355 23.8108 5 
91 1 -6.30166 37.6741 37.495 5 
375 1 -4.88342 44.4757 37.484 5 
372 1 -3.72881 35.3559 33.5131 5 
246 1 -6.78241 41.0029 21.8325 5 
221 1 -10.06 40.914 28.1948 5 
536 1 -2.08004 42.4784 29.0171 5 
195 1 7.1154 28.181 30.9424 5 
307 1 4.29383 37.3035 31.5322 5 
370 1 5.92143 28.252 33.1532 5 
417 1 1.95437 42.6788 34.4023 5 
233 1 8.64977 37.8939 33.082 5 
364 1 6.7765 32.1046 33.1848 5 
145 1 -5.69731 38.5336 32.3702 5 
353 1 8.5291 36.5161 28.1467 5 
527 1 -9.39311 38.4683 38.0145 5 
134 1 1.2408 34.8859 24.888 5 
436 1 -1.65167 30.5338 34.9087 5 
17 1 -5.91444 36.1551 40.4633 5 
167 1 -4.68365 42.1794 37.6083 5 
322 1 -9.30081 36.6534 28.528 5 
220 1 4.88571 34.669 41.8667 5 
127 1 3.72946 33.7368 34.934 5 
174 1 -3.75252 37.8113 41.972 5 
170 1 -4.49693 36.2711 24.4398 5 
242 1 -2.51546 32.192 26.3865 5 
47 1 1.63907 40.2226 41.1997 5 
78 1 0.737083 33.0264 31.6544 5 
98 1 1.40112 39.8134 34.7471 5 
241 1 4.09517 25.9808 35.8794 5 
284 1 0.968151 37.9267 23.1151 5 
204 1 2.80369 33.8563 33.0136 5 
43 1 3.73261 31.4827 35.73 5 
492 1 -0.433419 44.4853 36.0421 5 
373 1 0.341866 30.1548 28.7284 5 
281 1 3.38737 38.3962 40.9748 5 
92 1 -0.563797 27.8958 33.4785 5 
120 1 2.21559 37.8906 38.6265 5 
201 1 0.138937 38.0774 31.7945 5 
326 1 -5.03693 31.7712 30.3204 5 
155 1 -3.45236 34.3984 24.9192 5 
328 1 -1.59874 34.8855 34.8289 5 
197 1 3.01447 29.1387 28.7695 5 
33 1 -5.45164 31.5955 38.5962 5 
245 1 -0.748484 33.9377 38.3627 5 
124 1 4.8327 39.2658 27.3042 5 
119 1 -6.01593 41.6224 28.2528 5 
240 1 -9.54011 36.715 30.8423 5 
501 1 1.53967 24.338 29.3938 5 
254 1 -8.64305 38.9076 31.5017 5 
356 1 1.45637 45.1409 34.9347 5 
463 1 5.88763 35.9789 26.6181 5 
327 1 -1.82394 33.3565 36.394 5 
300 1 -9.47718 38.8996 29.2642 5 
192 1 -3.96081 41.4019 23.5554 5 
450 1 -2.03926 36.1 24.8968 5 
285 1 -10.3641 38.2071 27.2512 5 
425 1 3.08988 41.0322 30.4658 5 
471 1 -5.73021 42.0424 31.0313 5 
484 1 3.0366 36.3335 37.1432 5 
248 1 -2.64136 41.8579 38.113 5 
483 1 0.566122 33.8052 36.327 5 
498 1 -2.5155 37.3626 34.9453 5 
316 1 -2.92129 39.9604 28.6649 5 
99 1 4.29653 31.2073 27.7923 5 
166 1 -6.23994 42.7246 33.1198 5 
8 1 -29.5043 48.6611 23.4082 5 
243 1 0.776923 44.4268 38.3676 5 
37 1 -9.68561 38.543 24.6512 5 
232 1 -8.42568 43.7535 29.2903 5 
15 1 -5.11975 44.2704 31.8847 5 
332 1 1.65529 46.1358 32.0769 5 
196 1 -10.187 40.0002 34.0066 5 
479 1 -1.15712 38.3048 24.2124 5 
39 1 1.75579 38.8997 29.6064 5 
152 1 -5.94007 61.3513 27.1357 5 
480 1 1.8896 28.9782 32.9447 5 
114 1 -2.57705 36.9735 22.4663 5 
144 1 -2.11084 36.1243 37.4063 5 
138 1 4.66572 27.8419 31.1277 5 
230 1 1.69644 45.3837 28.9555 5 
247 1 0.771266 27.1202 38.9272 5 
215 1 -3.23957 36.0382 26.9132 5 
335 1 -4.53763 47.1822 33.7105 5 
393 1 2.03643 31.0089 27.4281 5 
224 1 -25.9866 39.7853 25.4386 5 
148 1 -4.62759 31.0939 27.591 5 
151 1 -4.69007 35.8816 29.1331 5 
462 1 -10.4672 37.9707 33.1078 5 
18 1 5.92548 34.095 34.6876 5 
478 1 -4.19378 37.7689 39.018 5 
255 1 -3.12838 30.6347 31.1635 5 
229 1 -0.499267 42.2638 30.7068 5 
228 1 -5.07682 26.5984 34.0964 5 
528 1 5.94345 33.0904 38.483 5 
485 1 3.47927 33.7667 28.6401 5 
293 1 3.2796 28.3079 39.3285 5 
412 1 -5.33157 36.6424 26.5326 5 
252 1 -2.53286 44.5355 38.6294 5 
391 1 -3.07498 34.5569 22.6775 5 
312 1 -4.43854 46.7057 30.4919 5 
390 1 0.410348 43.0349 26.5842 5 
403 1 6.2831 35.5354 39.4587 5 
38 1 -6.63704 37.447 28.3153 5 
199 1 2.53234 37.2369 42.5472 5 
525 1 1.77855 80.0745 23.3701 5 
280 1 5.69381 29.7478 37.0294 5 
267 1 -1.80062 41.551 33.3403 5 
169 1 -2.46216 43.2655 24.0667 5 
350 1 -8.2197 33.8706 40.1808 5 
361 1 -8.63535 40.6308 39.1187 5 
523 1 1.39047 28.3974 37.12 5 
407 1 -4.45148 40.5595 21.2053 5 
301 1 2.88507 36.0812 40.5169 5 
16 1 2.20527 38.6122 25.2642 5 
126 1 -1.19739 31.6185 38.0251 5 
58 1 -0.293951 32.4477 27.6532 5 
156 1 -6.52889 37.0704 30.798 5 
418 1 -9.60309 32.8236 25.7152 5 
66 1 5.5246 37.0496 41.4445 5 
90 1 -1.33368 32.9343 40.3126 5 
426 1 0.742556 37.2899 40.4864 5 
179 1 -3.12163 37.8878 28.1574 5 
216 1 0.029678 34.6529 28.8297 5 
20 1 1.65874 34.8438 30.8423 5 
438 1 -7.35811 38.3121 39.4122 5 
310 1 8.54492 28.9093 36.6556 5 
481 1 7.00425 32.4144 30.9895 5 
430 1 -4.61331 26.2213 31.2558 5 
421 1 -0.0696165 45.5096 30.5864 5 
101 1 6.61846 36.4904 34.3008 5 
377 1 1.04796 32.4154 29.4656 5 
431 1 -4.68911 40.5443 29.9034 5 
449 1 5.12328 40.3372 31.5666 5 
427 1 -9.40558 32.9085 31.8754 5 
323 1 -11.1215 33.0373 33.4412 5 
530 1 -38.645 66.5115 45.0226 5 
74 1 4.23795 29.8274 33.3294 5 
27 1 -8.17405 35.3302 26.1037 5 
318 1 -1.41203 33.5801 30.1678 5 
401 1 8.64526 35.6373 34.3467 5 
406 1 3.31025 41.0172 36.0254 5 
141 1 -4.61908 35.8622 31.36 5 
113 1 -2.46428 39.2294 36.2995 5 
102 1 -3.86595 37.376 32.7943 5 
218 1 -6.6398 40.1663 31.4738 5 
402 1 6.10619 41.1397 34.3899 5 
212 1 -4.74518 42.1705 25.5888 5 
190 1 8.90748 34.6174 29.7517 5 
358 1 -2.5741 26.5783 35.3489 5 
424 1 -3.83076 37.8517 37.0388 5 
458 1 -11.2707 35.7425 29.1841 5 
81 1 -1.25694 38.008 29.6145 5 
385 1 -6.3873 46.0594 32.2209 5 
451 1 -0.184064 42.6699 24.7225 5 
305 1 -1.76591 28.8325 38.9351 5 
459 1 6.97735 30.0473 38.9675 5 
308 1 1.50799 32.5816 34.423 5 
11 1 -9.97969 30.7101 32.8103 5 
452 1 6.19887 26.587 29.3736 5 
185 1 -1.95309 38.5018 38.2649 5 
453 1 2.61192 33.2614 25.5891 5 
271 1 -5.08291 30.6897 32.5096 5 
376 1 -2.90523 45.7368 31.9525 5 
86 1 -5.19341 30.6012 25.3172 5 
319 1 -1.48793 28.3948 29.919 5 
268 1 -4.81013 33.1275 23.2923 5 
321 1 -4.63941 38.1692 30.2573 5 
189 1 -6.69265 36.6948 24.564 5 
168 1 2.77225 41.242 32.7658 5 
354 1 -3.81499 40.0249 32.1081 5 
103 1 -1.27341 25.3849 33.5835 5 
65 1 -1.80651 36.3697 39.8319 5 
116 1 4.59402 28.1704 35.524 5 
253 1 6.05791 26.0632 34.5492 5 
428 1 -2.38773 26.2292 30.3469 5 
236 1 -7.89459 30.7335 31.1947 5 
489 1 9.11717 31.681 29.4001 5 
441 1 -5.55135 33.081 28.7951 5 
128 1 2.75489 42.3753 38.4896 5 
31 1 3.52957 35.58 26.945 5 
303 1 -7.28779 35.2419 29.5361 5 
165 1 -5.06374 38.9298 40.7422 5 
397 1 2.78055 36.4049 24.7586 5 
369 1 1.55364 32.9829 40.4723 5 
466 1 -8.89449 33.7959 36.6059 5 
2 1 -4.19406 32.749 36.9994 5 
193 1 -6.26114 34.1618 37.3487 5 
213 1 -0.0751334 35.1215 40.1091 5 
520 1 7.13094 34.9428 36.6288 5 
258 1 1.15407 24.1518 31.4531 5 
64 1 -5.68683 40.6159 33.88 5 
162 1 -11.3859 38.0794 30.876 5 
57 1 6.31979 31.8823 29.0553 5 
73 1 -2.63316 29.6097 25.7421 5 
194 1 -8.14012 34.9002 31.9489 5 
297 1 1.84474 26.7508 32.1654 5 
234 1 1.00575 35.4176 42.2012 5 
355 1 -6.84264 32.7757 26.8134 5 
298 1 -14.7364 20.181 26.3447 5 
357 1 -3.30116 32.1786 34.4474 5 
225 1 -5.98287 42.5688 23.5179 5 
46 1 -6.62534 32.1887 36.0893 5 
313 1 7.37146 33.7694 28.2532 5 
79 1 8.98381 35.4041 32.1067 5 
186 1 -7.53478 42.8785 26.912 5 
490 1 4.56183 26.8798 37.9884 5 
291 1 0.0202856 43.646 29.0169 5 
474 1 0.0141632 26.3989 36.1801 5 
535 1 6.13444 52.8769 18.5933 5 
386 1 -6.96895 25.938 32.9917 5 
500 1 -2.89171 42.1137 31.095 5 
157 1 0.400718 29.515 34.6692 5 
381 1 -9.43269 34.3633 29.896 5 
299 1 -2.24298 44.6072 30.0042 5 
283 1 -5.12808 30.2369 36.8763 5 
465 1 0.779458 45.2677 27.0906 5 
9 1 -2.15191 47.1596 30.2892 5 
510 1 -7.14904 31.2873 28.6715 5 
83 1 1.68344 26.7153 29.5174 5 
19 1 -9.96288 29.1857 31.345 5 
294 1 -10.2493 40.6898 30.8488 5 
464 1 -5.41017 39.8099 23.474 5 
191 1 -0.867116 36.8457 42.4575 5 
48 1 -7.06322 35.6196 22.6378 5 
491 1 5.88344 38.7331 33.7079 5 
209 1 10.3544 45.5425 97.8827 5 
444 1 -3.71297 32.4429 40.4433 5 
429 1 -0.545465 38.0902 21.6296 5 
69 1 -5.71309 39.0486 25.8715 5 
3 1 -8.84167 32.0796 34.6407 5 
336 1 2.97706 32.4874 30.863 5 
150 1 -2.68968 40.1972 39.9142 5 
487 1 -1.04284 38.9643 33.6474 5 
178 1 -1.6736 26.8493 37.8853 5 
272 1 4.10169 30.9582 29.809 5 
214 1 -3.85979 42.6112 39.8246 5 
202 1 -1.74042 41.5989 26.9395 5 
142 1 4.48329 32.1549 33.7707 5 
88 1 4.74509 41.119 28.635 5 
331 1 1.23549 28.5385 40.8611 5 
259 1 -0.537692 45.6834 32.882 5 
275 1 -7.0075 32.386 32.5206 5 
106 1 -7.74633 37.3447 26.4535 5 
439 1 -12.0338 37.0127 27.9262 5 
22 1 -6.02581 34.3916 31.8929 5 
260 1 6.79797 27.8432 37.4317 5 
522 1 -6.3534 45.6517 29.7395 5 
347 1 -7.29138 33.6099 34.3755 5 
330 1 -5.41456 37.6648 22.4838 5 
10 1 -10.6084 34.7482 27.3136 5 
265 1 -9.03449 40.1541 36.2986 5 
105 1 0.707598 40.4654 30.8038 5 
505 1 -0.554603 35.7675 22.9732 5 
278 1 -2.79717 29.7802 33.5413 5 
60 1 0.225332 37.1008 25.442 5 
123 1 3.15923 34.4764 42.6788 5 
432 1 -6.10215 28.2716 32.8707 5 
378 1 -10.9512 42.1554 47.7156 5 
50 1 -8.92478 34.7613 23.9607 5 
183 1 2.77631 38.0303 27.629 5 
413 1 5.50873 39.306 39.4288 5 
379 1 3.09294 24.6478 32.7461 5 
76 1 1.5055 35.0875 38.6945 5 
526 1 4.87238 32.7043 31.56 5 
130 1 1.70588 31.0276 41.5937 5 
400 1 -7.23736 30.6118 26.5718 5 
338 1 -4.83926 42.5558 35.1226 5 
404 1 -4.34102 39.8429 38.1726 5 
287 1 0.45365 36.9837 29.4715 5 
388 1 5.2527 41.1121 37.8735 5 
325 1 8.03601 37.7239 35.535 5 
486 1 3.8413 34.982 30.442 5 
136 1 -3.46802 38.0944 25.4335 5 
75 1 6.05313 30.2566 34.7974 5 
117 1 -0.444654 32.2619 35.2221 5 
40 1 -9.99389 31.4525 30.2737 5 
6 1 4.10919 31.9022 38.1673 5 
222 1 -1.08599 29.5461 32.2159 5 
51 1 -3.88579 45.5704 28.2607 5 
266 1 -5.22326 36.0924 35.6878 5 
408 1 0.454142 40.4319 26.7991 5 
97 1 -1.84399 32.3895 32.4251 5 
422 1 -8.66947 41.4098 23.3857 5 
392 1 7.97288 29.6096 28.8447 5 
411 1 -7.89609 30.3773 36.0992 5 
311 1 8.6569 26.9411 36.0293 5 
84 1 4.42747 36.9041 39.1934 5 
363 1 -7.51524 44.7256 33.8062 5 
210 1 -0.688916 30.4161 40.8802 5 