ITEM: TIMESTEP
80000
ITEM: NUMBER OF ATOMS
259
ITEM: BOX BOUNDS xy xz yz pp pp pp
-0.821483 28.8215 0
-0.821483 28.8215 0
-0.821483 28.8215 0
ITEM: ATOMS id type x y z c_cna 
3 1 10.5212 11.1954 9.34659 5 
65 1 5.56984 10.5327 13.7093 5 
6 1 10.976 13.2205 8.41622 5 
16 1 11.5457 8.27394 12.2129 5 
18 1 6.64172 11.4615 11.9138 5 
19 1 9.84067 9.37093 10.8619 5 
20 1 11.6729 10.761 11.6944 5 
21 1 12.4664 9.28576 9.91642 5 
62 1 13.8851 7.43214 12.708 5 
61 1 9.73761 8.46226 13.532 5 
77 1 5.50098 13.1369 12.9066 5 
28 1 8.49584 11.5533 10.3948 5 
29 1 10.3341 12.9215 11.3519 5 
30 1 12.4297 12.668 10.1836 5 
80 1 11.2184 12.4062 13.3878 5 
79 1 8.22618 13.0864 12.4926 5 
81 1 13.4919 11.8912 12.6824 5 
66 1 7.94336 9.55686 12.2806 5 
7 1 13.2163 13.4512 7.43995 5 
68 1 9.44215 11.0696 12.8485 5 
4 1 12.7331 11.1385 8.34371 5 
70 1 13.5487 9.5786 12.7638 5 
26 1 6.82054 13.8146 10.7203 5 
5 1 8.85404 13.6721 9.32959 5 
92 1 12.5222 13.9756 12.1958 5 
118 1 10.0796 8.43948 16.0666 5 
119 1 12.398 7.9682 17.0956 5 
78 1 6.85422 13.8325 14.9013 5 
123 1 6.28027 10.4153 16.1328 5 
124 1 7.87084 9.10042 14.9165 5 
125 1 9.64747 10.6951 15.1852 5 
231 1 7.63779 12.7151 20.9681 5 
127 1 11.6143 10.3828 16.4644 1 
128 1 13.6946 9.65973 15.4103 5 
134 1 5.57446 12.7356 17.3335 5 
135 1 5.0153 12.3661 15.0699 5 
136 1 7.72009 12.075 16.4836 5 
137 1 9.25504 13.1783 14.4177 5 
138 1 10.9555 12.7221 15.8572 1 
139 1 12.9044 11.9623 14.9796 5 
177 1 12.8108 8.56558 19.412 5 
179 1 8.30585 9.6553 17.3249 5 
180 1 9.15487 10.7777 19.6311 5 
181 1 10.5548 8.8927 18.3794 5 
182 1 11.6373 10.9438 18.861 5 
126 1 12.2281 7.90618 14.7056 5 
235 1 12.556 12.8289 20.0738 5 
189 1 6.91086 11.5112 18.7891 5 
190 1 8.42014 13.3397 18.8444 5 
191 1 9.67006 11.5693 17.4618 5 
192 1 10.9907 13.1623 18.2174 5 
193 1 12.8675 12.3992 17.3465 5 
226 1 11.1301 10.3143 20.9153 5 
228 1 13.4666 10.4606 20.7353 5 
233 1 10.2336 12.847 20.422 5 
67 1 7.45601 11.6007 14.2186 5 
183 1 13.8146 10.1753 17.832 5 
202 1 9.00467 13.9434 16.5638 5 
69 1 11.6317 10.1806 14.0606 5 
232 1 9.55837 11.6159 22.3883 5 
227 1 11.9161 12.3 22.2583 5 
241 1 9.36289 13.9149 22.4444 5 
9 1 9.53491 15.7655 8.71784 5 
10 1 12.6055 17.3794 7.09493 5 
14 1 12.5052 19.4087 8.54262 5 
36 1 6.30999 17.9357 10.9948 5 
37 1 7.60575 16.1368 10.033 5 
38 1 10.293 17.0271 10.6604 5 
39 1 9.14231 15.085 11.4951 5 
40 1 11.2675 14.9491 10.2554 5 
89 1 10.1267 17.0351 13.2785 5 
47 1 8.51715 18.4415 9.79112 5 
48 1 10.375 20.1407 9.66933 5 
49 1 10.6361 17.9304 8.51313 5 
27 1 7.16748 15.2623 12.8628 5 
51 1 12.9964 16.978 9.71644 5 
56 1 12.5715 21.3306 10.2546 5 
11 1 11.6763 15.4236 7.83863 5 
112 1 12.9887 22.6759 12.8628 5 
87 1 5.61368 17.4964 13.3866 5 
88 1 8.14133 17.3607 12.2837 5 
41 1 13.5874 14.5338 9.46127 5 
90 1 10.6163 14.7338 13.2743 5 
91 1 11.978 16.3098 12.07 5 
102 1 11.7067 18.7039 13.4445 5 
113 1 13.0378 20.4068 12.3379 5 
99 1 9.82455 19.096 11.96 5 
98 1 6.73653 19.5153 13.0157 5 
101 1 11.9728 18.8917 10.8135 5 
110 1 8.64064 21.7472 13.2567 5 
103 1 13.5432 17.7666 12.0118 5 
109 1 8.01613 20.3086 11.3669 5 
25 1 5.44284 15.6988 11.5608 5 
111 1 10.7492 21.3772 12.0112 5 
76 1 4.89481 15.3571 13.9188 5 
205 1 13.6201 16.416 18.2943 5 
145 1 4.63253 14.5496 16.2799 5 
146 1 4.5409 16.9737 15.8736 5 
147 1 6.67436 16.2505 15.2837 5 
148 1 8.77333 16.515 16.5991 5 
149 1 8.7136 15.4692 14.438 5 
150 1 10.7019 15.3259 15.6753 5 
156 1 6.11254 18.859 15.5179 5 
157 1 8.16303 17.9182 14.5381 5 
158 1 8.77421 19.0583 16.5708 5 
159 1 10.4517 17.7208 15.4967 5 
160 1 11.1877 19.9802 15.6258 5 
215 1 12.9413 18.7419 18.6702 5 
167 1 7.26363 20.8496 14.9994 5 
168 1 9.27885 21.7343 15.9369 5 
169 1 11.1001 21.8977 14.3346 5 
170 1 11.475 21.9436 17.0097 5 
171 1 13.2365 20.6028 14.6625 5 
257 1 12.5142 19.0535 20.9491 5 
199 1 5.32747 15.9285 18.0786 5 
200 1 6.99833 14.7822 17.0781 5 
201 1 7.83517 15.9285 18.9278 5 
162 1 12.8683 18.3204 16.0424 5 
203 1 10.0223 15.2924 18.0928 5 
204 1 12.3521 14.7163 17.0528 5 
210 1 6.74087 17.6746 17.419 5 
211 1 7.65391 19.1043 19.2656 5 
212 1 9.38684 17.7531 18.5138 5 
213 1 11.0003 19.2738 17.7955 5 
214 1 11.5876 16.8617 17.2374 5 
219 1 7.12346 20.2741 17.347 5 
220 1 9.33766 20.8818 18.2451 5 
221 1 11.8701 20.9612 19.1966 5 
222 1 13.5039 20.4222 17.0489 5 
1 1 12.49 14.2243 14.5665 5 
242 1 9.83138 15.2354 20.4969 5 
244 1 12.0093 14.9105 19.3978 5 
249 1 6.30975 17.156 19.9699 5 
250 1 8.83692 17.3142 20.9439 5 
252 1 11.2999 17.0172 19.6389 5 
256 1 10.1524 19.2534 20.1093 5 
240 1 7.56742 15.1207 21.1817 5 
172 1 13.6896 22.3966 18.2778 5 
245 1 13.3675 16.7329 20.6669 5 
161 1 12.0802 16.5674 14.4345 5 
176 1 13.2443 22.7586 15.5122 5 
2 1 13.9233 16.2171 15.8821 5 
100 1 9.51156 19.9826 14.1637 5 
188 1 6.08013 14.0349 19.4055 5 
253 1 13.4678 16.3285 22.8278 5 
243 1 11.7031 14.8443 21.8791 5 
251 1 11.0217 17.2652 21.9506 5 
259 1 13.7057 14.023 23.082 5 
82 1 14.7225 13.3383 13.9577 5 
35 1 19.4836 12.8513 10.0552 5 
17 1 15.1223 8.75898 10.8546 5 
84 1 16.747 12.7575 12.9409 5 
75 1 19.6835 10.0484 13.438 5 
23 1 14.658 9.64205 8.72586 5 
24 1 16.82 10.5314 9.63313 5 
31 1 14.7748 13.2398 11.4175 5 
32 1 14.927 12.3334 8.92135 5 
33 1 16.9319 12.7287 10.7159 5 
34 1 17.6025 12.5663 8.50011 5 
85 1 18.6467 11.3253 11.7763 5 
63 1 15.7924 8.47351 13.6223 5 
83 1 15.9426 10.7671 12.0663 5 
86 1 20.3816 13.0422 12.4147 5 
72 1 17.5337 9.20786 11.6325 5 
74 1 18.2175 8.26173 13.9507 5 
22 1 14.0774 10.9796 10.7309 5 
121 1 14.9771 8.15411 17.5678 5 
122 1 17.6024 8.86633 17.7849 5 
129 1 14.8409 11.7726 16.4551 5 
130 1 16.0989 9.72384 16.0478 5 
131 1 18.2909 11.4698 16.485 5 
132 1 18.9909 9.3043 15.8861 5 
133 1 20.4966 11.2511 15.5003 5 
120 1 14.4682 7.40248 15.305 5 
141 1 16.5915 12.5813 15.2473 5 
230 1 18.074 10.4465 19.5375 5 
143 1 18.7912 12.1689 14.2165 5 
144 1 20.6767 13.6747 14.8258 5 
178 1 15.5248 9.36751 19.5213 5 
184 1 14.5532 11.9284 19.2785 5 
185 1 16.4385 11.1153 17.9425 5 
186 1 18.4992 12.652 18.6837 5 
187 1 19.8589 10.4922 17.8961 5 
229 1 16.2896 11.2858 20.8211 5 
195 1 16.3206 13.3753 17.4028 5 
237 1 16.3483 13.3565 19.7235 5 
197 1 20.3367 13.0475 17.4013 5 
239 1 18.232 12.6778 21.0293 5 
64 1 16.9633 7.55722 15.8522 5 
71 1 15.1338 10.9483 14.212 5 
142 1 18.4275 13.9423 16.2573 5 
73 1 17.4056 10.4414 14.1097 5 
238 1 16.2064 13.7622 22.0184 5 
234 1 14.3457 12.2918 21.8662 5 
108 1 19.1389 19.8094 13.018 5 
13 1 16.6276 16.6196 8.3241 5 
93 1 14.1091 15.6584 13.6709 5 
42 1 14.0461 15.5194 11.3476 5 
43 1 15.9727 14.7275 9.93939 5 
44 1 17.4582 16.3043 11.0194 5 
45 1 18.1098 14.8988 8.94461 5 
46 1 19.722 15.6665 10.6625 5 
52 1 16.9061 18.6192 11.4604 5 
53 1 15.3373 17.1211 10.2851 5 
54 1 18.7687 19.7487 10.5202 5 
55 1 18.5443 17.58 9.56906 5 
59 1 16.5524 20.8372 10.2617 5 
60 1 16.5858 19.0531 9.01566 5 
106 1 17.2226 18.818 13.7756 5 
94 1 16.1084 15.0579 12.4577 5 
95 1 17.951 16.6852 13.4297 5 
50 1 14.3228 19.4146 10.5843 5 
97 1 20.3337 15.5611 13.0324 5 
8 1 15.8906 14.0153 7.60757 5 
105 1 15.6553 17.1778 12.6608 5 
115 1 15.3348 19.8755 12.7934 5 
107 1 19.5444 17.6159 11.9827 5 
117 1 17.3811 21.2379 12.4216 5 
58 1 14.453 20.7996 8.7939 5 
57 1 14.7694 21.9256 11.2899 5 
15 1 14.5599 18.2457 8.1825 5 
12 1 14.357 15.7978 7.73102 5 
114 1 15.2213 21.9667 13.9119 5 
96 1 18.3812 14.1033 11.8044 5 
236 1 14.0843 14.4156 20.7287 5 
151 1 16.2886 14.872 14.9401 5 
152 1 17.967 16.3776 16.0188 5 
223 1 14.1478 20.4398 20.0281 5 
154 1 19.6311 18.0203 17.3368 5 
155 1 20.2073 16.0063 15.3683 5 
198 1 19.7262 14.2994 19.6162 5 
163 1 15.9089 17.1339 14.9646 5 
164 1 17.2487 18.7303 16.2604 5 
165 1 19.3712 18.2008 14.8371 5 
166 1 19.2601 20.2195 16.0807 5 
255 1 17.2372 17.5396 20.7365 5 
173 1 15.3511 19.7013 15.5054 5 
174 1 16.1754 21.8435 19.0027 5 
175 1 17.2954 21.1034 14.7411 5 
196 1 17.7706 14.9538 18.3462 2 
206 1 15.8437 15.7032 17.0591 5 
207 1 17.046 17.4009 18.0923 5 
208 1 20.1341 15.5859 17.5295 5 
209 1 18.9999 16.844 19.4157 5 
116 1 15.4794 21.9711 16.3773 5 
216 1 14.901 17.9139 16.9811 5 
217 1 16.3846 19.8097 20.4932 5 
218 1 18.101 19.3831 18.7789 5 
104 1 14.0471 18.3003 14.1672 5 
224 1 15.4727 19.8624 18.1215 5 
225 1 17.4366 21.0456 17.1807 5 
246 1 15.7867 15.6818 19.4974 1 
248 1 17.8506 15.1838 20.8768 5 
254 1 14.9902 17.9878 19.453 5 
140 1 14.293 14.0278 16.0171 5 
194 1 14.253 14.0497 18.3088 5 
153 1 18.4214 14.453 14.0968 5 
247 1 15.6029 16.0364 21.9115 5 
258 1 14.8286 18.3809 21.9101 5 
ITEM: TIMESTEP
82000
ITEM: NUMBER OF ATOMS
259
ITEM: BOX BOUNDS xy xz yz pp pp pp
-0.821483 28.8215 0
-0.821483 28.8215 0
-0.821483 28.8215 0
ITEM: ATOMS id type x y z c_cna 
3 1 10.8619 11.0332 9.27701 5 
65 1 5.75585 10.6287 13.6217 5 
6 1 10.9212 13.2214 8.45031 5 
16 1 11.7346 8.23076 12.0008 5 
18 1 6.75888 11.5173 11.5306 5 
19 1 9.83606 9.25514 10.9367 5 
20 1 11.5184 10.894 11.6308 5 
21 1 12.6605 9.11027 9.95397 5 
62 1 13.8051 7.29164 12.8109 5 
61 1 9.84057 8.76887 13.4395 5 
77 1 5.81179 13.3505 12.8608 5 
28 1 8.79889 11.2499 10.3907 5 
29 1 10.4351 12.9945 11.4096 5 
30 1 12.6104 12.8239 10.2171 5 
80 1 11.1436 12.4215 13.5438 5 
79 1 8.40471 13.2605 12.2888 5 
81 1 13.3413 11.921 12.7576 5 
66 1 7.71185 9.43196 12.4875 5 
7 1 13.1931 13.4868 7.29395 5 
68 1 9.26897 11.0886 12.7319 5 
4 1 13.101 11.133 8.31087 5 
70 1 13.375 9.64749 12.8228 5 
69 1 11.4988 10.2659 14.0909 5 
5 1 8.85123 13.4795 9.49688 5 
22 1 13.8308 11.0249 10.8168 5 
92 1 12.6185 14.0101 12.2632 5 
118 1 10.1325 8.64714 15.935 5 
119 1 12.2999 8.02718 17.0219 5 
78 1 7.00224 14.0656 15.0643 5 
123 1 6.2865 10.5782 16.252 5 
124 1 7.74803 9.19328 14.9227 5 
125 1 9.48602 10.8735 15.2043 5 
231 1 7.68182 12.5848 20.8743 5 
127 1 11.6298 10.4689 16.522 1 
128 1 13.5669 9.66969 15.307 5 
134 1 5.66452 12.7037 17.492 5 
135 1 5.14462 12.6598 15.0948 5 
136 1 7.87631 12.3047 16.4707 5 
137 1 9.31759 13.4251 14.5659 5 
138 1 10.8847 12.6888 16.1017 5 
139 1 12.9168 11.9984 15.0465 1 
177 1 12.9275 8.70594 19.487 5 
179 1 8.28616 9.6944 17.223 5 
180 1 8.84647 10.2863 19.8375 5 
181 1 10.3317 8.99545 18.4066 5 
182 1 11.7601 11.0208 18.8756 5 
126 1 12.1048 7.91926 14.5757 5 
235 1 12.3864 12.8134 20.3436 5 
189 1 7.05577 11.1918 18.8102 5 
190 1 8.37144 13.4346 18.8227 5 
191 1 9.56787 11.5674 17.707 5 
192 1 10.911 13.2635 18.3179 5 
193 1 12.8717 12.3421 17.4939 5 
226 1 11.1468 9.97097 20.8248 5 
228 1 13.508 10.7368 20.9807 5 
233 1 10.0145 12.3551 20.3676 5 
67 1 7.43379 11.8754 14.1423 5 
183 1 13.6568 10.0078 17.7 5 
188 1 6.15239 14.187 19.6409 5 
232 1 9.19802 11.0123 22.1749 5 
227 1 11.5727 12.054 22.3432 5 
234 1 13.9668 12.5923 22.6322 5 
241 1 9.69864 13.6262 22.3442 5 
9 1 9.56478 15.7418 8.63026 5 
10 1 12.5227 17.6248 7.07759 5 
14 1 12.4406 19.4593 8.74059 5 
36 1 6.47883 18.0673 10.8458 5 
37 1 7.43766 15.9138 9.88719 5 
38 1 10.483 17.0647 10.7169 5 
39 1 9.19745 15.2874 11.2397 5 
40 1 11.454 14.8586 10.2483 5 
89 1 10.1586 17.2153 13.2711 5 
47 1 8.60557 18.0202 9.53989 5 
48 1 10.1478 20.2842 9.61188 5 
49 1 10.6663 17.9803 8.51262 5 
27 1 7.21915 15.1988 13.0019 5 
51 1 12.751 17.1064 9.55478 5 
56 1 12.6337 21.4843 10.1085 5 
11 1 11.9087 15.5619 7.9041 5 
112 1 12.7191 22.6319 12.675 5 
87 1 5.8884 17.2569 13.4997 5 
88 1 8.07425 17.2807 12.1871 5 
41 1 13.7443 14.7212 9.29105 5 
90 1 10.645 14.8352 13.1667 5 
91 1 12.0586 16.287 12.055 5 
102 1 11.7487 18.9846 13.6249 5 
113 1 13.054 20.318 12.4174 5 
99 1 9.72538 18.9903 11.8432 5 
98 1 7.1644 19.4075 12.9884 5 
101 1 11.9106 18.9184 10.969 5 
110 1 8.60253 21.5622 12.879 5 
103 1 13.6301 17.8863 12.1239 5 
109 1 8.07232 20.2561 10.909 5 
25 1 5.57807 15.9093 11.5905 5 
111 1 10.7763 21.0705 11.89 5 
26 1 6.81274 13.8069 10.6481 5 
205 1 13.816 16.3585 18.265 5 
145 1 4.85025 14.6907 16.3778 5 
146 1 4.68238 17.0342 15.9238 5 
147 1 6.76685 16.2245 15.4996 5 
148 1 8.84231 16.583 16.439 5 
149 1 8.86651 15.6446 14.4418 5 
150 1 10.7547 15.4298 15.6569 5 
156 1 6.03045 18.9118 15.3451 5 
157 1 8.11211 17.9611 14.4761 5 
158 1 8.79984 19.0794 16.5285 5 
159 1 10.4539 17.8978 15.4641 5 
160 1 11.2738 20.3645 15.6789 5 
215 1 13.0279 18.4971 18.6785 5 
167 1 7.56682 20.6552 15.0041 5 
168 1 9.20917 21.6297 16.1529 5 
169 1 10.8544 22.0307 14.1127 5 
170 1 11.0907 21.9563 17.4374 5 
171 1 13.3586 20.6083 14.6037 5 
257 1 12.6414 18.9627 21.0988 5 
199 1 5.19579 15.9846 18.2776 5 
200 1 6.89965 14.6829 17.2591 5 
201 1 8.09754 15.8584 18.8814 5 
162 1 12.8818 18.4625 15.8566 5 
203 1 10.307 15.5317 18.2941 5 
204 1 12.3455 14.6175 17.0355 5 
210 1 6.67235 17.5699 17.555 5 
211 1 7.58812 18.7207 19.4776 5 
212 1 9.52019 17.7996 18.3665 5 
213 1 11.0578 19.3073 17.7212 5 
214 1 11.6873 16.9913 17.1859 5 
219 1 6.90008 19.9701 17.2847 5 
220 1 9.20107 20.5674 18.5802 5 
221 1 11.8293 20.933 19.413 5 
222 1 13.5768 20.408 17.1213 5 
1 1 12.4436 14.2729 14.651 5 
242 1 10.2505 14.7753 20.447 5 
244 1 12.2996 14.9386 19.4375 5 
249 1 6.34896 16.7471 20.2138 5 
250 1 9.11513 17.0958 20.8451 5 
252 1 11.4953 17.2397 19.6581 5 
256 1 10.3016 19.2741 20.3383 5 
240 1 7.93013 15.0026 21.1154 5 
172 1 13.4009 22.425 18.2063 5 
245 1 13.4186 16.5344 20.8075 5 
161 1 12.2954 16.7362 14.2524 5 
176 1 12.5603 22.5257 15.6529 5 
2 1 13.6114 16.1081 15.9439 5 
202 1 9.07218 14.2159 16.6855 5 
100 1 9.58958 19.7742 14.0921 5 
76 1 4.80157 15.2348 14.0491 5 
253 1 13.4531 17.2852 23.0652 5 
243 1 12.0639 14.5475 22.1051 5 
251 1 11.1644 16.7679 22.1265 5 
82 1 14.7235 13.4851 13.8269 5 
35 1 19.4334 12.9713 10.0211 5 
17 1 14.9819 8.77733 11.1173 5 
84 1 16.8366 12.6214 12.9648 5 
75 1 19.6042 9.73715 13.6354 5 
23 1 15.5901 10.4834 9.30946 5 
24 1 17.699 10.6296 10.0174 5 
31 1 14.7163 13.2156 11.3835 5 
32 1 14.6837 12.5334 8.80142 5 
33 1 16.766 12.6638 10.6032 5 
34 1 17.2985 12.5829 8.36589 5 
85 1 18.8599 11.3764 11.9189 5 
63 1 15.4763 8.82473 13.6254 5 
83 1 15.9296 10.8188 11.9529 5 
86 1 20.3501 13.1923 12.4975 5 
72 1 17.5838 9.08471 11.8431 5 
74 1 17.7769 7.96938 13.945 5 
121 1 15.0049 8.0139 17.5685 5 
122 1 17.3696 8.85817 17.7832 5 
129 1 14.7989 11.7398 16.4015 5 
130 1 16.0389 9.69926 15.9179 5 
131 1 18.144 11.2935 16.3698 5 
132 1 18.688 9.10588 15.7935 5 
133 1 20.3873 10.868 15.7307 5 
120 1 14.2081 7.40334 15.4294 5 
141 1 16.6801 12.5231 15.2104 5 
230 1 17.4866 10.5684 19.8489 5 
143 1 19.1016 12.0416 14.2083 5 
144 1 20.8201 13.4428 15.1772 5 
178 1 15.1578 9.4143 19.8156 5 
184 1 14.5644 11.7615 19.2541 5 
185 1 16.2987 10.9437 17.9121 5 
186 1 18.2247 12.423 18.4701 5 
187 1 19.4067 10.3254 18.0414 5 
142 1 18.7274 13.7994 16.4332 5 
195 1 16.2653 13.3677 17.281 5 
237 1 16.3433 13.318 19.5602 5 
197 1 20.4939 12.6605 17.4222 5 
239 1 18.1485 12.6551 20.9419 5 
64 1 16.5524 7.3968 15.8914 5 
71 1 15.0235 11.198 14.1785 5 
73 1 17.299 10.5027 13.9764 5 
140 1 14.3063 13.9993 16.0381 5 
229 1 15.7814 11.5178 21.2412 5 
238 1 16.3836 13.9185 22.1443 5 
108 1 18.8274 19.9853 13.1206 5 
13 1 16.8142 16.8063 8.08196 5 
93 1 14.2682 15.6574 13.6127 5 
42 1 14.1429 15.629 11.3171 5 
43 1 16.1664 14.7477 9.80691 5 
44 1 17.3214 16.4781 10.8686 5 
45 1 18.3826 14.9746 8.97447 5 
46 1 19.8866 15.5277 10.6671 5 
52 1 16.9371 18.7847 11.252 5 
53 1 15.1732 17.1677 9.94684 5 
54 1 18.7568 19.9695 10.4173 5 
55 1 18.7458 17.5717 9.49914 5 
59 1 16.4636 21.018 9.84127 5 
60 1 16.733 18.9259 8.80572 5 
106 1 17.158 18.7254 13.8349 5 
94 1 16.2425 14.9064 12.4998 5 
95 1 17.8273 16.4643 13.5088 5 
50 1 14.4938 19.3892 10.5513 5 
97 1 20.1418 15.6088 13.115 5 
8 1 15.8875 14.3958 7.56317 5 
105 1 15.6915 17.12 12.356 5 
115 1 15.3874 19.7755 12.8238 5 
107 1 19.0644 17.7752 11.9603 5 
117 1 17.0042 21.2813 12.0849 5 
58 1 14.4745 20.8966 8.71036 5 
57 1 14.7768 21.7449 11.4041 5 
15 1 14.5583 18.5123 8.08489 5 
12 1 14.2867 16.1236 7.46484 5 
114 1 14.9954 22.1059 13.7349 5 
96 1 18.1491 14.1844 11.5684 5 
236 1 14.3042 14.183 20.8447 5 
151 1 16.362 14.7009 14.9152 5 
152 1 17.9753 16.0749 16.0875 5 
194 1 14.332 13.9823 18.508 5 
154 1 19.5291 17.7332 17.1084 5 
155 1 20.2205 15.7912 15.4526 5 
198 1 19.6407 14.0835 19.6332 5 
163 1 15.9925 16.9302 14.9595 5 
164 1 17.1842 18.5621 16.2467 5 
165 1 19.4424 17.9657 14.5929 5 
166 1 18.7246 20.0657 15.8539 5 
255 1 17.4955 17.9918 20.5986 5 
173 1 15.3515 19.8002 15.5627 5 
174 1 15.6001 21.8777 18.8408 5 
175 1 17.059 21.2187 14.57 5 
196 1 17.7809 14.8994 18.4829 2 
206 1 15.7717 15.6564 17.0066 2 
207 1 17.115 17.2277 18.148 5 
208 1 20.2429 15.173 17.671 5 
209 1 19.0775 16.8273 19.4372 5 
116 1 15.1173 22.2487 16.1144 5 
216 1 14.8683 17.8686 16.8653 5 
217 1 16.551 20.1329 20.2157 5 
218 1 18.1985 19.4287 18.3696 5 
104 1 14.3036 18.1693 14.1689 5 
224 1 15.656 19.6855 18.0182 5 
225 1 16.9444 21.2638 17.0935 5 
246 1 15.7611 15.6597 19.5278 5 
248 1 17.8187 15.3384 20.9403 5 
254 1 15.1989 17.8445 19.5511 5 
223 1 14.0861 20.3389 19.8459 5 
153 1 18.4956 14.2942 14.0966 5 
247 1 15.8924 16.3804 21.9041 5 
258 1 15.0119 18.699 21.7372 5 
259 1 14.2294 14.9691 23.0317 5 
ITEM: TIMESTEP
84000
ITEM: NUMBER OF ATOMS
259
ITEM: BOX BOUNDS xy xz yz pp pp pp
-0.821483 28.8215 0
-0.821483 28.8215 0
-0.821483 28.8215 0
ITEM: ATOMS id type x y z c_cna 
3 1 10.628 11.0497 9.30911 5 
65 1 5.91575 10.1875 13.9142 5 
6 1 11.0428 13.2298 8.30449 5 
16 1 12.0047 8.10936 11.8598 5 
18 1 6.77331 11.3593 11.7821 5 
19 1 9.79866 9.02652 10.8732 5 
20 1 11.4861 10.693 11.4269 5 
21 1 12.5833 9.23448 9.82625 5 
62 1 13.8803 7.17217 12.8437 5 
61 1 9.97164 8.50624 13.4395 5 
77 1 5.68833 13.0495 12.9283 5 
28 1 8.51865 11.1514 10.595 5 
29 1 10.5427 12.8911 11.1442 5 
30 1 12.5248 12.7082 10.0431 5 
80 1 10.9886 12.4514 13.393 5 
79 1 8.50947 12.999 12.4895 5 
81 1 13.0359 11.7487 12.71 5 
66 1 7.83288 9.22348 12.288 5 
7 1 13.3876 13.3271 7.44341 5 
68 1 9.54541 10.7967 12.8533 5 
4 1 12.8703 11.1272 8.16744 5 
70 1 13.6438 9.51915 12.7481 5 
69 1 11.5514 10.1497 14.0115 5 
5 1 8.83618 13.3278 9.46853 5 
26 1 6.80954 13.4942 10.7086 5 
118 1 10.2826 8.70467 15.7976 5 
119 1 12.5397 8.09087 16.9778 5 
78 1 7.22092 13.9377 14.9352 5 
123 1 6.21849 10.3377 16.3476 5 
124 1 7.92095 9.32413 14.8059 5 
125 1 9.65437 11.0541 15.1954 1 
231 1 7.50406 12.4532 20.7924 5 
127 1 11.6355 10.5394 16.4599 1 
128 1 13.4806 9.64027 15.2564 5 
134 1 5.5481 12.8689 17.573 5 
135 1 5.43313 12.3707 15.2605 5 
136 1 7.80927 12.2945 16.5831 5 
137 1 9.38383 13.4218 14.5996 5 
138 1 11.0903 12.9707 16.0311 1 
139 1 12.9198 12.0019 14.8977 5 
177 1 13.0133 8.83155 19.3179 5 
179 1 8.43227 9.68514 17.1747 5 
180 1 9.01655 10.5026 19.4861 5 
181 1 10.7558 9.069 18.2581 5 
182 1 11.7666 11.0268 18.9433 5 
126 1 12.0516 7.78323 14.3072 5 
235 1 12.362 12.8628 20.3577 5 
189 1 6.98842 11.4762 18.5539 5 
190 1 8.57599 13.6344 18.783 5 
191 1 9.77409 11.7525 17.6106 5 
192 1 11.0298 13.3969 18.4447 5 
193 1 12.7929 12.4374 17.5014 5 
226 1 10.9891 10.1987 20.863 5 
228 1 13.2939 10.7217 21.2933 5 
233 1 9.95214 12.705 20.3678 5 
67 1 7.68727 11.6476 14.1963 5 
183 1 13.8975 10.2141 17.7199 5 
188 1 6.31581 14.1068 19.5327 5 
232 1 9.28227 11.3113 21.9771 5 
227 1 11.5131 12.186 22.4943 5 
234 1 13.9033 12.7554 22.3086 5 
241 1 9.70366 13.8225 22.5814 5 
9 1 9.62047 15.5088 8.59644 5 
10 1 12.3297 17.5982 7.20936 5 
14 1 12.3957 19.4696 8.66543 5 
36 1 6.33423 18.395 10.9991 5 
37 1 7.64916 16.0313 9.67271 5 
38 1 10.1927 16.9639 10.7303 5 
39 1 9.08187 14.9894 11.2671 5 
40 1 11.2554 14.8584 10.1072 5 
89 1 10.3779 17.2435 13.0935 5 
47 1 8.43099 18.3668 9.87129 5 
48 1 10.3133 20.2514 9.82621 5 
49 1 10.4858 17.8157 8.6683 5 
27 1 7.32038 14.9806 12.7838 5 
51 1 12.7075 17.0648 9.6584 5 
56 1 12.4699 21.2594 10.3888 5 
11 1 11.8109 15.4349 7.60794 5 
112 1 12.8411 22.5486 12.8295 5 
87 1 5.82777 17.3963 13.2811 5 
88 1 8.07622 17.1471 12.1109 5 
41 1 13.5762 14.8537 9.35959 5 
90 1 10.5045 14.7545 13.0648 5 
91 1 12.0436 16.0055 11.9993 5 
102 1 11.7962 19.0891 13.6175 5 
113 1 13.0622 20.2755 12.3387 5 
99 1 9.46671 19.1876 11.9086 5 
98 1 7.08954 19.5507 13.0468 5 
101 1 11.6323 18.7363 10.9978 5 
110 1 8.76256 21.6665 13.1932 5 
103 1 13.4665 17.8254 12.1725 5 
109 1 7.89756 20.5933 11.0135 5 
25 1 5.87249 15.9478 11.3244 5 
111 1 10.7757 21.3532 12.1271 5 
92 1 12.586 13.8297 12.0692 5 
205 1 13.8919 16.4011 18.333 5 
145 1 4.76497 14.508 15.9947 5 
146 1 4.66845 16.9312 15.7075 5 
147 1 6.77339 16.3663 15.3148 5 
148 1 8.785 16.4466 16.4202 5 
149 1 8.82875 15.7055 14.1497 5 
150 1 10.7938 15.55 15.4606 5 
156 1 6.17114 18.9398 15.3892 5 
157 1 8.22174 17.9633 14.401 5 
158 1 8.76007 18.9615 16.5698 5 
159 1 10.4047 17.9039 15.488 5 
160 1 11.3415 20.2641 15.7419 5 
215 1 12.97 18.6169 18.7419 5 
167 1 7.34627 20.9054 15.0391 5 
168 1 9.32874 21.5703 16.182 5 
169 1 10.9253 22.1139 14.3346 5 
170 1 11.2878 21.9901 17.4206 5 
171 1 13.3248 20.6571 14.7059 5 
257 1 12.6037 18.8755 21.1199 5 
199 1 5.05806 15.9147 17.9844 5 
200 1 6.98321 14.7195 17.2138 5 
201 1 8.14751 15.9429 18.8184 5 
162 1 12.8778 18.521 16.1025 5 
203 1 10.3073 15.532 18.158 5 
204 1 12.4082 14.7521 16.8212 5 
210 1 6.58251 17.6294 17.3276 5 
211 1 7.80361 18.7784 19.448 5 
212 1 9.55735 17.7781 18.4164 5 
213 1 11.0983 19.2143 17.6701 5 
214 1 11.7844 16.9308 17.2719 5 
219 1 7.05215 20.1529 17.3354 5 
220 1 9.1113 20.5124 18.5739 5 
221 1 11.6746 20.6797 19.5109 5 
222 1 13.6469 20.3614 17.2646 5 
1 1 12.4101 14.314 14.2535 5 
242 1 10.2463 15.0599 20.6143 5 
244 1 12.4036 15.0676 19.4212 5 
249 1 6.4798 16.8202 19.9875 5 
250 1 9.02833 17.1894 20.818 5 
252 1 11.3645 17.0935 19.6167 5 
256 1 10.2631 19.0771 20.4519 5 
240 1 7.91604 14.8255 21.2111 5 
172 1 13.4454 22.3515 18.2285 5 
245 1 13.4534 16.5574 20.8084 5 
161 1 12.2896 16.8402 14.3345 5 
176 1 12.9196 22.6445 15.6803 5 
2 1 13.8028 16.2328 15.8826 5 
202 1 9.31287 14.2329 16.6277 5 
100 1 9.64175 19.873 14.2149 5 
76 1 5.00948 15.1215 13.8513 5 
253 1 13.2581 17.1828 22.9682 5 
243 1 12.0229 14.6273 22.1622 5 
251 1 11.1056 16.9322 22.0184 5 
82 1 14.599 13.3504 13.6428 5 
35 1 19.2826 13.0178 10.1988 5 
17 1 14.9146 8.722 10.9496 5 
84 1 16.9666 12.699 12.9432 5 
22 1 13.9264 11.0033 10.6649 5 
23 1 14.975 10.0525 8.87103 5 
24 1 17.0287 10.3353 9.92614 5 
31 1 14.7282 13.085 11.4399 5 
32 1 14.8493 12.4441 9.00663 5 
33 1 17.0098 12.6046 10.5204 5 
34 1 17.1739 12.633 8.31794 5 
85 1 18.5871 11.2212 11.7469 5 
63 1 15.7044 8.58414 13.662 5 
83 1 15.9056 10.8341 11.9405 5 
86 1 20.0289 13.0772 12.5251 5 
72 1 17.4665 9.06162 11.8686 5 
75 1 19.6048 9.96041 13.494 5 
121 1 15.0763 8.18518 17.5731 5 
122 1 17.5429 9.01391 17.8242 5 
129 1 14.6635 11.8304 16.4685 5 
130 1 15.8352 9.87679 16.006 5 
131 1 17.8251 11.3152 16.4744 5 
132 1 18.8442 9.03751 15.7575 5 
133 1 20.2394 10.8853 15.9874 5 
120 1 14.3068 7.48623 15.3035 5 
141 1 16.4687 12.5183 15.1229 5 
230 1 17.6842 10.4982 19.8407 5 
143 1 18.977 12.0134 14.4143 5 
144 1 20.6159 13.6029 15.1865 5 
178 1 15.3724 9.5514 19.7396 5 
184 1 14.311 12.02 19.4511 5 
185 1 16.1564 11.1606 18.1142 5 
186 1 18.2543 12.4199 18.597 5 
187 1 19.397 10.3149 18.1725 5 
142 1 18.4204 13.8943 16.3857 5 
195 1 16.2724 13.3747 17.2497 5 
237 1 16.3113 13.4349 19.6435 5 
197 1 20.2978 12.8241 17.4683 5 
239 1 18.0989 12.5723 20.9681 5 
64 1 16.7267 7.55861 15.9986 5 
71 1 14.9777 11.1464 14.0643 5 
73 1 17.3182 10.3013 14.0292 5 
74 1 18.0174 7.88453 14.0537 5 
194 1 14.1428 14.0595 18.3207 5 
229 1 15.7265 11.5244 21.162 5 
238 1 16.3671 13.8738 22.0066 5 
108 1 19.0468 20.0471 13.0814 5 
13 1 16.7197 16.4486 8.31904 5 
93 1 14.1872 15.761 13.755 5 
42 1 14.269 15.6034 11.4589 5 
43 1 15.8863 14.578 9.94276 5 
44 1 17.1778 16.3241 10.9411 5 
45 1 18.1858 14.7294 9.04466 5 
46 1 19.8131 15.6317 10.658 5 
52 1 16.6463 18.6885 11.3002 5 
53 1 15.2054 17.123 9.97729 5 
54 1 18.6539 19.8567 10.6049 5 
55 1 18.7116 17.5096 9.56967 5 
59 1 16.605 20.8899 10.2205 5 
60 1 16.6498 18.9843 8.94019 5 
106 1 17.2194 18.9465 13.8683 5 
94 1 16.1396 14.8331 12.5563 5 
95 1 17.6863 16.6373 13.5144 5 
50 1 14.4064 19.3532 10.496 5 
97 1 20.0935 15.7112 13.0412 5 
8 1 15.7685 14.2685 7.47405 5 
105 1 15.5776 17.2231 12.5674 5 
115 1 15.2672 19.8639 12.9452 5 
107 1 19.0702 17.7946 11.9497 5 
117 1 17.13 21.2883 12.5119 5 
58 1 14.5914 20.84 8.798 5 
57 1 14.704 21.8832 11.4207 5 
15 1 14.5005 18.5824 8.02638 5 
12 1 14.3124 16.1369 7.5424 5 
114 1 15.1393 22.0897 14.1327 5 
96 1 18.2916 14.3273 11.8032 5 
153 1 18.4449 14.3173 14.0622 5 
236 1 14.2725 14.299 20.7637 5 
151 1 16.2996 14.8029 14.8951 5 
152 1 18.0002 16.1871 15.9603 5 
223 1 14.1772 20.3897 19.8774 5 
154 1 19.659 17.6686 17.0537 5 
155 1 20.3433 16.0116 15.3714 5 
198 1 19.6024 13.9577 19.7612 5 
163 1 15.8518 17.0919 14.9245 5 
164 1 17.3062 18.4266 16.1853 5 
165 1 19.4511 17.9967 14.4719 5 
166 1 19.1277 20.0104 15.6852 5 
255 1 17.3858 17.9479 20.7674 5 
173 1 15.488 19.8097 15.4908 5 
174 1 15.8184 21.8357 18.7814 5 
175 1 17.3302 21.4376 14.8935 5 
196 1 17.6836 15.0915 18.3571 2 
206 1 15.7715 15.7122 16.9571 5 
207 1 17.0224 17.4263 18.2493 5 
208 1 19.9666 15.2689 17.7496 5 
209 1 19.0669 16.8336 19.3248 5 
116 1 15.4499 22.0524 16.4333 5 
216 1 14.8537 17.8977 16.9186 5 
217 1 16.544 19.9983 20.3081 5 
218 1 18.3623 19.228 18.5649 5 
104 1 14.0783 18.3684 14.2641 5 
224 1 15.7506 19.6561 18.0179 5 
225 1 17.5581 20.9555 17.1729 5 
246 1 15.7957 15.8176 19.4739 5 
248 1 17.9933 15.2848 20.8018 5 
254 1 15.1429 17.9346 19.6379 5 
140 1 14.2875 14.0447 15.8499 5 
247 1 15.8532 16.4413 21.7957 5 
258 1 14.9724 18.7065 21.8056 5 
259 1 14.2665 15.0225 23.0151 5 
ITEM: TIMESTEP
86000
ITEM: NUMBER OF ATOMS
259
ITEM: BOX BOUNDS xy xz yz pp pp pp
-0.821483 28.8215 0
-0.821483 28.8215 0
-0.821483 28.8215 0
ITEM: ATOMS id type x y z c_cna 
3 1 10.9406 10.9265 9.3833 5 
65 1 5.7133 10.664 13.6199 5 
6 1 11.151 13.0696 8.38799 5 
16 1 11.9296 8.18001 12.0153 5 
18 1 6.68012 11.5071 11.592 5 
19 1 10.0148 9.14721 10.8712 5 
20 1 11.6095 10.6895 11.7043 5 
21 1 12.607 9.13445 10.0374 5 
26 1 6.9115 13.6564 10.5615 5 
61 1 9.90287 8.54809 13.2941 5 
77 1 5.64009 13.2372 12.8757 5 
28 1 8.87937 11.258 10.4829 5 
29 1 10.5798 12.9044 11.2868 5 
30 1 12.6835 12.5994 10.1697 5 
80 1 11.2426 12.4584 13.5424 5 
79 1 8.50494 12.8872 12.23 5 
81 1 13.2891 11.8202 12.7038 5 
66 1 7.73219 9.45811 12.453 5 
7 1 13.4786 13.489 7.3774 5 
68 1 9.50389 10.8126 12.766 5 
4 1 13.257 10.9999 8.30839 5 
70 1 13.5946 9.46731 12.9722 5 
62 1 13.8823 7.03202 12.7969 5 
5 1 9.04592 13.4522 9.48198 5 
118 1 10.2016 8.69327 15.8942 5 
119 1 12.4633 8.1272 16.9864 5 
78 1 7.07581 13.9749 14.9186 5 
123 1 6.30748 10.5492 16.2292 5 
124 1 8.055 9.38122 14.9345 5 
125 1 9.6761 11.1296 15.2179 1 
231 1 7.64853 12.4279 20.8227 5 
127 1 11.6434 10.5196 16.5586 1 
128 1 13.5718 9.69038 15.3866 5 
134 1 5.50976 12.828 17.3142 5 
135 1 5.04339 12.4417 15.0826 5 
136 1 7.73013 12.3336 16.5236 5 
137 1 9.21423 13.4528 14.3777 5 
138 1 11.0355 12.991 15.893 5 
139 1 12.8865 12.0749 15.0524 1 
177 1 12.9398 8.75814 19.4343 5 
179 1 8.48553 9.71565 17.2136 5 
180 1 8.74509 10.3493 19.7204 5 
181 1 10.5155 9.05793 18.489 5 
182 1 11.6742 11.0163 18.9575 5 
126 1 12.0054 7.8298 14.4069 5 
235 1 12.4057 12.9629 20.2778 5 
189 1 7.00825 11.5119 18.5739 5 
190 1 8.45001 13.4523 18.6802 5 
191 1 9.6848 11.5657 17.6991 5 
192 1 10.8655 13.3593 18.4587 5 
193 1 12.7985 12.4843 17.497 5 
226 1 11.0045 9.87606 20.8607 5 
228 1 13.4351 10.4786 21.0484 5 
233 1 10.0468 12.3415 20.2252 5 
67 1 7.49957 11.6599 14.1589 5 
183 1 13.7296 10.1851 17.9281 5 
69 1 11.5764 10.1503 14.097 5 
232 1 9.43359 11.2775 22.1878 5 
227 1 11.6113 12.2583 22.3152 5 
234 1 14.0738 12.5147 22.0211 5 
241 1 9.55393 13.6416 22.3117 5 
9 1 9.37035 15.6574 8.8171 5 
10 1 12.5957 17.6183 7.14414 5 
14 1 12.4979 19.6447 8.91676 5 
36 1 6.48041 18.4821 10.9312 5 
37 1 7.32371 15.9846 9.9261 5 
38 1 10.1904 16.9843 10.6714 5 
39 1 8.9772 14.9959 11.3058 5 
40 1 11.233 14.9749 10.0817 5 
89 1 10.28 17.2151 13.1329 5 
47 1 8.31673 18.1918 9.55029 5 
48 1 10.079 20.0256 9.72258 5 
49 1 10.5836 17.8323 8.4691 5 
27 1 7.33267 15.0226 12.8125 5 
51 1 12.8214 17.1678 9.66878 5 
56 1 12.4333 21.4862 10.3169 5 
11 1 11.714 15.5723 7.84374 5 
112 1 12.5818 22.581 12.9972 5 
87 1 5.76998 17.5476 13.1479 5 
88 1 8.02145 17.1428 12.1477 5 
41 1 13.6172 14.6872 9.48237 5 
90 1 10.6453 14.7895 12.815 5 
91 1 12.0933 16.2966 11.797 5 
102 1 11.6279 19.1348 13.5721 5 
113 1 13.0369 20.4551 12.3121 5 
99 1 9.43857 19.1069 11.9033 5 
98 1 7.10121 19.5224 13.011 5 
101 1 11.6148 18.802 11.1364 5 
110 1 8.51386 21.6307 13.0686 5 
103 1 13.5769 17.9293 12.0934 5 
109 1 8.16122 20.567 10.7939 5 
25 1 5.7508 15.8495 11.4556 5 
111 1 10.6873 21.2749 12.0189 5 
76 1 5.0255 15.3543 13.855 5 
92 1 12.7404 14.0481 11.9837 5 
205 1 13.669 16.4044 18.3925 5 
145 1 4.84156 14.7854 16.0704 5 
146 1 4.66897 17.1104 16.0964 5 
147 1 6.76158 16.3356 15.2618 5 
148 1 8.92978 16.4906 16.4727 5 
149 1 8.90473 15.6566 14.2363 5 
150 1 10.8637 15.5051 15.4375 5 
156 1 6.23481 18.5637 15.3725 5 
157 1 8.2815 17.9145 14.3643 5 
158 1 8.85367 19.0386 16.577 5 
159 1 10.4784 17.8592 15.4719 5 
160 1 11.1964 20.2734 15.8041 5 
215 1 13.2084 18.7437 18.7489 5 
167 1 7.30692 20.6671 15.0897 5 
168 1 9.13483 21.4894 16.4285 5 
169 1 10.7222 22.0659 14.4196 5 
170 1 11.2858 22.0137 17.3253 5 
171 1 13.2122 20.6203 14.7098 5 
257 1 12.6376 19.041 21.1518 5 
199 1 5.24638 15.7974 18.1496 5 
200 1 7.14455 14.9261 17.0973 5 
201 1 8.09819 15.8106 19.0907 5 
162 1 12.8213 18.5346 15.987 5 
203 1 10.2427 15.5166 18.2781 5 
204 1 12.1804 14.6699 17.0913 5 
210 1 6.88991 17.5514 17.4709 5 
211 1 7.71081 18.923 19.6898 5 
212 1 9.37364 17.7051 18.4206 5 
213 1 11.0336 19.3033 17.8469 5 
214 1 11.7491 17.0175 17.2588 5 
219 1 7.07308 20.1151 17.4835 5 
220 1 9.2328 20.5125 18.7059 5 
221 1 11.8883 20.8509 19.4698 5 
222 1 13.3864 20.457 17.1156 5 
1 1 12.3948 14.3831 14.2725 5 
242 1 9.87986 14.9886 20.5435 5 